LAMMPS (22 Jul 2025)
OMP_NUM_THREADS environment is not set. Defaulting to 1 thread.
  using 1 OpenMP thread(s) per MPI task
variable UNITS     string ${UNITS}
variable UNITS     string metal
ERROR: Cannot redefine variable UNITS with a different style (src/variable.cpp:340)
Last input line: variable UNITS string ${UNITS}
--> parsed line: variable UNITS string metal 
                                ^^^^^^
