(written by ASE)

11520 atoms
2 atom types

0.0      43.739602782121665  xlo xhi
0.0      43.739602782121665  ylo yhi
0.0      82.011755216478122  zlo zhi

Atoms # charge

     1   1   2.4                       0                       0                       0
     2   1   2.4 -1.4997388508859272e-16      2.7337251738826032      2.7337251738826041
     3   1   2.4      2.7337251738826032                       0      2.7337251738826041
     4   1   2.4      2.7337251738826032      2.7337251738826032  2.9995703239834954e-16
     5   1   2.4                       0                       0      5.4674503477652081
     6   1   2.4 -1.4997388508859272e-16      2.7337251738826032      8.2011755216478122
     7   1   2.4      2.7337251738826032                       0      8.2011755216478122
     8   1   2.4      2.7337251738826032      2.7337251738826032      5.4674503477652081
     9   1   2.4                       0                       0      10.934900695530416
    10   1   2.4 -1.4997388508859272e-16      2.7337251738826032       13.66862586941302
    11   1   2.4      2.7337251738826032                       0       13.66862586941302
    12   1   2.4      2.7337251738826032      2.7337251738826032      10.934900695530416
    13   1   2.4                       0                       0      16.402351043295624
    14   1   2.4 -1.4997388508859272e-16      2.7337251738826032      19.136076217178225
    15   1   2.4      2.7337251738826032                       0      19.136076217178225
    16   1   2.4      2.7337251738826032      2.7337251738826032      16.402351043295624
    17   1   2.4                       0                       0      21.869801391060832
    18   1   2.4 -1.4997388508859272e-16      2.7337251738826032      24.603526564943436
    19   1   2.4      2.7337251738826032                       0      24.603526564943436
    20   1   2.4      2.7337251738826032      2.7337251738826032      21.869801391060832
    21   1   2.4                       0                       0      27.337251738826041
    22   1   2.4 -1.4997388508859272e-16      2.7337251738826032      30.070976912708637
    23   1   2.4      2.7337251738826032                       0      30.070976912708637
    24   1   2.4      2.7337251738826032      2.7337251738826032      27.337251738826041
    25   1   2.4                       0                       0      32.804702086591249
    26   1   2.4 -1.4997388508859272e-16      2.7337251738826032      35.538427260473853
    27   1   2.4      2.7337251738826032                       0      35.538427260473853
    28   1   2.4      2.7337251738826032      2.7337251738826032      32.804702086591249
    29   1   2.4                       0                       0       38.27215243435645
    30   1   2.4 -1.4997388508859272e-16      2.7337251738826032      41.005877608239047
    31   1   2.4      2.7337251738826032                       0      41.005877608239047
    32   1   2.4      2.7337251738826032      2.7337251738826032       38.27215243435645
    33   1   2.4                       0                       0      43.739602782121665
    34   1   2.4 -1.4997388508859272e-16      2.7337251738826032      46.473327956004269
    35   1   2.4      2.7337251738826032                       0      46.473327956004269
    36   1   2.4      2.7337251738826032      2.7337251738826032      43.739602782121665
    37   1   2.4                       0                       0      49.207053129886873
    38   1   2.4 -1.4997388508859272e-16      2.7337251738826032      51.940778303769477
    39   1   2.4      2.7337251738826032                       0      51.940778303769477
    40   1   2.4      2.7337251738826032      2.7337251738826032      49.207053129886873
    41   1   2.4                       0                       0      54.674503477652081
    42   1   2.4 -1.4997388508859272e-16      2.7337251738826032      57.408228651534671
    43   1   2.4      2.7337251738826032                       0      57.408228651534671
    44   1   2.4      2.7337251738826032      2.7337251738826032      54.674503477652081
    45   1   2.4                       0                       0      60.141953825417275
    46   1   2.4 -1.4997388508859272e-16      2.7337251738826032      62.875678999299879
    47   1   2.4      2.7337251738826032                       0      62.875678999299879
    48   1   2.4      2.7337251738826032      2.7337251738826032      60.141953825417275
    49   1   2.4                       0                       0      65.609404173182497
    50   1   2.4 -1.4997388508859272e-16      2.7337251738826032      68.343129347065101
    51   1   2.4      2.7337251738826032                       0      68.343129347065101
    52   1   2.4      2.7337251738826032      2.7337251738826032      65.609404173182497
    53   1   2.4                       0                       0      71.076854520947705
    54   1   2.4 -1.4997388508859272e-16      2.7337251738826032      73.810579694830295
    55   1   2.4      2.7337251738826032                       0      73.810579694830295
    56   1   2.4      2.7337251738826032      2.7337251738826032      71.076854520947705
    57   1   2.4                       0                       0      76.544304868712899
    58   1   2.4 -1.4997388508859272e-16      2.7337251738826032      79.278030042595503
    59   1   2.4      2.7337251738826032                       0      79.278030042595503
    60   1   2.4      2.7337251738826032      2.7337251738826032      76.544304868712899
    61   1   2.4                       0      5.4674503477652063                       0
    62   1   2.4 -1.4997388508859272e-16      8.2011755216478104      2.7337251738826041
    63   1   2.4      2.7337251738826032      5.4674503477652063      2.7337251738826041
    64   1   2.4      2.7337251738826032      8.2011755216478104  2.9995703239834954e-16
    65   1   2.4                       0      5.4674503477652063      5.4674503477652081
    66   1   2.4 -1.4997388508859272e-16      8.2011755216478104      8.2011755216478122
    67   1   2.4      2.7337251738826032      5.4674503477652063      8.2011755216478122
    68   1   2.4      2.7337251738826032      8.2011755216478104      5.4674503477652081
    69   1   2.4                       0      5.4674503477652063      10.934900695530416
    70   1   2.4 -1.4997388508859272e-16      8.2011755216478104       13.66862586941302
    71   1   2.4      2.7337251738826032      5.4674503477652063       13.66862586941302
    72   1   2.4      2.7337251738826032      8.2011755216478104      10.934900695530416
    73   1   2.4                       0      5.4674503477652063      16.402351043295624
    74   1   2.4 -1.4997388508859272e-16      8.2011755216478104      19.136076217178225
    75   1   2.4      2.7337251738826032      5.4674503477652063      19.136076217178225
    76   1   2.4      2.7337251738826032      8.2011755216478104      16.402351043295624
    77   1   2.4                       0      5.4674503477652063      21.869801391060832
    78   1   2.4 -1.4997388508859272e-16      8.2011755216478104      24.603526564943436
    79   1   2.4      2.7337251738826032      5.4674503477652063      24.603526564943436
    80   1   2.4      2.7337251738826032      8.2011755216478104      21.869801391060832
    81   1   2.4                       0      5.4674503477652063      27.337251738826041
    82   1   2.4 -1.4997388508859272e-16      8.2011755216478104      30.070976912708637
    83   1   2.4      2.7337251738826032      5.4674503477652063      30.070976912708637
    84   1   2.4      2.7337251738826032      8.2011755216478104      27.337251738826041
    85   1   2.4                       0      5.4674503477652063      32.804702086591249
    86   1   2.4 -1.4997388508859272e-16      8.2011755216478104      35.538427260473853
    87   1   2.4      2.7337251738826032      5.4674503477652063      35.538427260473853
    88   1   2.4      2.7337251738826032      8.2011755216478104      32.804702086591249
    89   1   2.4                       0      5.4674503477652063       38.27215243435645
    90   1   2.4 -1.4997388508859272e-16      8.2011755216478104      41.005877608239047
    91   1   2.4      2.7337251738826032      5.4674503477652063      41.005877608239047
    92   1   2.4      2.7337251738826032      8.2011755216478104       38.27215243435645
    93   1   2.4                       0      5.4674503477652063      43.739602782121665
    94   1   2.4 -1.4997388508859272e-16      8.2011755216478104      46.473327956004269
    95   1   2.4      2.7337251738826032      5.4674503477652063      46.473327956004269
    96   1   2.4      2.7337251738826032      8.2011755216478104      43.739602782121665
    97   1   2.4                       0      5.4674503477652063      49.207053129886873
    98   1   2.4 -1.4997388508859272e-16      8.2011755216478104      51.940778303769477
    99   1   2.4      2.7337251738826032      5.4674503477652063      51.940778303769477
   100   1   2.4      2.7337251738826032      8.2011755216478104      49.207053129886873
   101   1   2.4                       0      5.4674503477652063      54.674503477652081
   102   1   2.4 -1.4997388508859272e-16      8.2011755216478104      57.408228651534671
   103   1   2.4      2.7337251738826032      5.4674503477652063      57.408228651534671
   104   1   2.4      2.7337251738826032      8.2011755216478104      54.674503477652081
   105   1   2.4                       0      5.4674503477652063      60.141953825417275
   106   1   2.4 -1.4997388508859272e-16      8.2011755216478104      62.875678999299879
   107   1   2.4      2.7337251738826032      5.4674503477652063      62.875678999299879
   108   1   2.4      2.7337251738826032      8.2011755216478104      60.141953825417275
   109   1   2.4                       0      5.4674503477652063      65.609404173182497
   110   1   2.4 -1.4997388508859272e-16      8.2011755216478104      68.343129347065101
   111   1   2.4      2.7337251738826032      5.4674503477652063      68.343129347065101
   112   1   2.4      2.7337251738826032      8.2011755216478104      65.609404173182497
   113   1   2.4                       0      5.4674503477652063      71.076854520947705
   114   1   2.4 -1.4997388508859272e-16      8.2011755216478104      73.810579694830295
   115   1   2.4      2.7337251738826032      5.4674503477652063      73.810579694830295
   116   1   2.4      2.7337251738826032      8.2011755216478104      71.076854520947705
   117   1   2.4                       0      5.4674503477652063      76.544304868712899
   118   1   2.4 -1.4997388508859272e-16      8.2011755216478104      79.278030042595503
   119   1   2.4      2.7337251738826032      5.4674503477652063      79.278030042595503
   120   1   2.4      2.7337251738826032      8.2011755216478104      76.544304868712899
   121   1   2.4                       0      10.934900695530413                       0
   122   1   2.4 -1.4997388508859272e-16      13.668625869413018      2.7337251738826041
   123   1   2.4      2.7337251738826032      10.934900695530413      2.7337251738826041
   124   1   2.4      2.7337251738826032      13.668625869413018  2.9995703239834954e-16
   125   1   2.4                       0      10.934900695530413      5.4674503477652081
   126   1   2.4 -1.4997388508859272e-16      13.668625869413018      8.2011755216478122
   127   1   2.4      2.7337251738826032      10.934900695530413      8.2011755216478122
   128   1   2.4      2.7337251738826032      13.668625869413018      5.4674503477652081
   129   1   2.4                       0      10.934900695530413      10.934900695530416
   130   1   2.4 -1.4997388508859272e-16      13.668625869413018       13.66862586941302
   131   1   2.4      2.7337251738826032      10.934900695530413       13.66862586941302
   132   1   2.4      2.7337251738826032      13.668625869413018      10.934900695530416
   133   1   2.4                       0      10.934900695530413      16.402351043295624
   134   1   2.4 -1.4997388508859272e-16      13.668625869413018      19.136076217178225
   135   1   2.4      2.7337251738826032      10.934900695530413      19.136076217178225
   136   1   2.4      2.7337251738826032      13.668625869413018      16.402351043295624
   137   1   2.4                       0      10.934900695530413      21.869801391060832
   138   1   2.4 -1.4997388508859272e-16      13.668625869413018      24.603526564943436
   139   1   2.4      2.7337251738826032      10.934900695530413      24.603526564943436
   140   1   2.4      2.7337251738826032      13.668625869413018      21.869801391060832
   141   1   2.4                       0      10.934900695530413      27.337251738826041
   142   1   2.4 -1.4997388508859272e-16      13.668625869413018      30.070976912708637
   143   1   2.4      2.7337251738826032      10.934900695530413      30.070976912708637
   144   1   2.4      2.7337251738826032      13.668625869413018      27.337251738826041
   145   1   2.4                       0      10.934900695530413      32.804702086591249
   146   1   2.4 -1.4997388508859272e-16      13.668625869413018      35.538427260473853
   147   1   2.4      2.7337251738826032      10.934900695530413      35.538427260473853
   148   1   2.4      2.7337251738826032      13.668625869413018      32.804702086591249
   149   1   2.4                       0      10.934900695530413       38.27215243435645
   150   1   2.4 -1.4997388508859272e-16      13.668625869413018      41.005877608239047
   151   1   2.4      2.7337251738826032      10.934900695530413      41.005877608239047
   152   1   2.4      2.7337251738826032      13.668625869413018       38.27215243435645
   153   1   2.4                       0      10.934900695530413      43.739602782121665
   154   1   2.4 -1.4997388508859272e-16      13.668625869413018      46.473327956004269
   155   1   2.4      2.7337251738826032      10.934900695530413      46.473327956004269
   156   1   2.4      2.7337251738826032      13.668625869413018      43.739602782121665
   157   1   2.4                       0      10.934900695530413      49.207053129886873
   158   1   2.4 -1.4997388508859272e-16      13.668625869413018      51.940778303769477
   159   1   2.4      2.7337251738826032      10.934900695530413      51.940778303769477
   160   1   2.4      2.7337251738826032      13.668625869413018      49.207053129886873
   161   1   2.4                       0      10.934900695530413      54.674503477652081
   162   1   2.4 -1.4997388508859272e-16      13.668625869413018      57.408228651534671
   163   1   2.4      2.7337251738826032      10.934900695530413      57.408228651534671
   164   1   2.4      2.7337251738826032      13.668625869413018      54.674503477652081
   165   1   2.4                       0      10.934900695530413      60.141953825417275
   166   1   2.4 -1.4997388508859272e-16      13.668625869413018      62.875678999299879
   167   1   2.4      2.7337251738826032      10.934900695530413      62.875678999299879
   168   1   2.4      2.7337251738826032      13.668625869413018      60.141953825417275
   169   1   2.4                       0      10.934900695530413      65.609404173182497
   170   1   2.4 -1.4997388508859272e-16      13.668625869413018      68.343129347065101
   171   1   2.4      2.7337251738826032      10.934900695530413      68.343129347065101
   172   1   2.4      2.7337251738826032      13.668625869413018      65.609404173182497
   173   1   2.4                       0      10.934900695530413      71.076854520947705
   174   1   2.4 -1.4997388508859272e-16      13.668625869413018      73.810579694830295
   175   1   2.4      2.7337251738826032      10.934900695530413      73.810579694830295
   176   1   2.4      2.7337251738826032      13.668625869413018      71.076854520947705
   177   1   2.4                       0      10.934900695530413      76.544304868712899
   178   1   2.4 -1.4997388508859272e-16      13.668625869413018      79.278030042595503
   179   1   2.4      2.7337251738826032      10.934900695530413      79.278030042595503
   180   1   2.4      2.7337251738826032      13.668625869413018      76.544304868712899
   181   1   2.4                       0      16.402351043295621                       0
   182   1   2.4 -1.4997388508859272e-16      19.136076217178225      2.7337251738826041
   183   1   2.4      2.7337251738826032      16.402351043295621      2.7337251738826041
   184   1   2.4      2.7337251738826032      19.136076217178225  2.9995703239834954e-16
   185   1   2.4                       0      16.402351043295621      5.4674503477652081
   186   1   2.4 -1.4997388508859272e-16      19.136076217178225      8.2011755216478122
   187   1   2.4      2.7337251738826032      16.402351043295621      8.2011755216478122
   188   1   2.4      2.7337251738826032      19.136076217178225      5.4674503477652081
   189   1   2.4                       0      16.402351043295621      10.934900695530416
   190   1   2.4 -1.4997388508859272e-16      19.136076217178225       13.66862586941302
   191   1   2.4      2.7337251738826032      16.402351043295621       13.66862586941302
   192   1   2.4      2.7337251738826032      19.136076217178225      10.934900695530416
   193   1   2.4                       0      16.402351043295621      16.402351043295624
   194   1   2.4 -1.4997388508859272e-16      19.136076217178225      19.136076217178225
   195   1   2.4      2.7337251738826032      16.402351043295621      19.136076217178225
   196   1   2.4      2.7337251738826032      19.136076217178225      16.402351043295624
   197   1   2.4                       0      16.402351043295621      21.869801391060832
   198   1   2.4 -1.4997388508859272e-16      19.136076217178225      24.603526564943436
   199   1   2.4      2.7337251738826032      16.402351043295621      24.603526564943436
   200   1   2.4      2.7337251738826032      19.136076217178225      21.869801391060832
   201   1   2.4                       0      16.402351043295621      27.337251738826041
   202   1   2.4 -1.4997388508859272e-16      19.136076217178225      30.070976912708637
   203   1   2.4      2.7337251738826032      16.402351043295621      30.070976912708637
   204   1   2.4      2.7337251738826032      19.136076217178225      27.337251738826041
   205   1   2.4                       0      16.402351043295621      32.804702086591249
   206   1   2.4 -1.4997388508859272e-16      19.136076217178225      35.538427260473853
   207   1   2.4      2.7337251738826032      16.402351043295621      35.538427260473853
   208   1   2.4      2.7337251738826032      19.136076217178225      32.804702086591249
   209   1   2.4                       0      16.402351043295621       38.27215243435645
   210   1   2.4 -1.4997388508859272e-16      19.136076217178225      41.005877608239047
   211   1   2.4      2.7337251738826032      16.402351043295621      41.005877608239047
   212   1   2.4      2.7337251738826032      19.136076217178225       38.27215243435645
   213   1   2.4                       0      16.402351043295621      43.739602782121665
   214   1   2.4 -1.4997388508859272e-16      19.136076217178225      46.473327956004269
   215   1   2.4      2.7337251738826032      16.402351043295621      46.473327956004269
   216   1   2.4      2.7337251738826032      19.136076217178225      43.739602782121665
   217   1   2.4                       0      16.402351043295621      49.207053129886873
   218   1   2.4 -1.4997388508859272e-16      19.136076217178225      51.940778303769477
   219   1   2.4      2.7337251738826032      16.402351043295621      51.940778303769477
   220   1   2.4      2.7337251738826032      19.136076217178225      49.207053129886873
   221   1   2.4                       0      16.402351043295621      54.674503477652081
   222   1   2.4 -1.4997388508859272e-16      19.136076217178225      57.408228651534671
   223   1   2.4      2.7337251738826032      16.402351043295621      57.408228651534671
   224   1   2.4      2.7337251738826032      19.136076217178225      54.674503477652081
   225   1   2.4                       0      16.402351043295621      60.141953825417275
   226   1   2.4 -1.4997388508859272e-16      19.136076217178225      62.875678999299879
   227   1   2.4      2.7337251738826032      16.402351043295621      62.875678999299879
   228   1   2.4      2.7337251738826032      19.136076217178225      60.141953825417275
   229   1   2.4                       0      16.402351043295621      65.609404173182497
   230   1   2.4 -1.4997388508859272e-16      19.136076217178225      68.343129347065101
   231   1   2.4      2.7337251738826032      16.402351043295621      68.343129347065101
   232   1   2.4      2.7337251738826032      19.136076217178225      65.609404173182497
   233   1   2.4                       0      16.402351043295621      71.076854520947705
   234   1   2.4 -1.4997388508859272e-16      19.136076217178225      73.810579694830295
   235   1   2.4      2.7337251738826032      16.402351043295621      73.810579694830295
   236   1   2.4      2.7337251738826032      19.136076217178225      71.076854520947705
   237   1   2.4                       0      16.402351043295621      76.544304868712899
   238   1   2.4 -1.4997388508859272e-16      19.136076217178225      79.278030042595503
   239   1   2.4      2.7337251738826032      16.402351043295621      79.278030042595503
   240   1   2.4      2.7337251738826032      19.136076217178225      76.544304868712899
   241   1   2.4                       0      21.869801391060822                       0
   242   1   2.4 -1.4997388508859272e-16      24.603526564943433      2.7337251738826041
   243   1   2.4      2.7337251738826032      21.869801391060822      2.7337251738826041
   244   1   2.4      2.7337251738826032      24.603526564943433  2.9995703239834954e-16
   245   1   2.4                       0      21.869801391060822      5.4674503477652081
   246   1   2.4 -1.4997388508859272e-16      24.603526564943433      8.2011755216478122
   247   1   2.4      2.7337251738826032      21.869801391060822      8.2011755216478122
   248   1   2.4      2.7337251738826032      24.603526564943433      5.4674503477652081
   249   1   2.4                       0      21.869801391060822      10.934900695530416
   250   1   2.4 -1.4997388508859272e-16      24.603526564943433       13.66862586941302
   251   1   2.4      2.7337251738826032      21.869801391060822       13.66862586941302
   252   1   2.4      2.7337251738826032      24.603526564943433      10.934900695530416
   253   1   2.4                       0      21.869801391060822      16.402351043295624
   254   1   2.4 -1.4997388508859272e-16      24.603526564943433      19.136076217178225
   255   1   2.4      2.7337251738826032      21.869801391060822      19.136076217178225
   256   1   2.4      2.7337251738826032      24.603526564943433      16.402351043295624
   257   1   2.4                       0      21.869801391060822      21.869801391060832
   258   1   2.4 -1.4997388508859272e-16      24.603526564943433      24.603526564943436
   259   1   2.4      2.7337251738826032      21.869801391060822      24.603526564943436
   260   1   2.4      2.7337251738826032      24.603526564943433      21.869801391060832
   261   1   2.4                       0      21.869801391060822      27.337251738826041
   262   1   2.4 -1.4997388508859272e-16      24.603526564943433      30.070976912708637
   263   1   2.4      2.7337251738826032      21.869801391060822      30.070976912708637
   264   1   2.4      2.7337251738826032      24.603526564943433      27.337251738826041
   265   1   2.4                       0      21.869801391060822      32.804702086591249
   266   1   2.4 -1.4997388508859272e-16      24.603526564943433      35.538427260473853
   267   1   2.4      2.7337251738826032      21.869801391060822      35.538427260473853
   268   1   2.4      2.7337251738826032      24.603526564943433      32.804702086591249
   269   1   2.4                       0      21.869801391060822       38.27215243435645
   270   1   2.4 -1.4997388508859272e-16      24.603526564943433      41.005877608239047
   271   1   2.4      2.7337251738826032      21.869801391060822      41.005877608239047
   272   1   2.4      2.7337251738826032      24.603526564943433       38.27215243435645
   273   1   2.4                       0      21.869801391060822      43.739602782121665
   274   1   2.4 -1.4997388508859272e-16      24.603526564943433      46.473327956004269
   275   1   2.4      2.7337251738826032      21.869801391060822      46.473327956004269
   276   1   2.4      2.7337251738826032      24.603526564943433      43.739602782121665
   277   1   2.4                       0      21.869801391060822      49.207053129886873
   278   1   2.4 -1.4997388508859272e-16      24.603526564943433      51.940778303769477
   279   1   2.4      2.7337251738826032      21.869801391060822      51.940778303769477
   280   1   2.4      2.7337251738826032      24.603526564943433      49.207053129886873
   281   1   2.4                       0      21.869801391060822      54.674503477652081
   282   1   2.4 -1.4997388508859272e-16      24.603526564943433      57.408228651534671
   283   1   2.4      2.7337251738826032      21.869801391060822      57.408228651534671
   284   1   2.4      2.7337251738826032      24.603526564943433      54.674503477652081
   285   1   2.4                       0      21.869801391060822      60.141953825417275
   286   1   2.4 -1.4997388508859272e-16      24.603526564943433      62.875678999299879
   287   1   2.4      2.7337251738826032      21.869801391060822      62.875678999299879
   288   1   2.4      2.7337251738826032      24.603526564943433      60.141953825417275
   289   1   2.4                       0      21.869801391060822      65.609404173182497
   290   1   2.4 -1.4997388508859272e-16      24.603526564943433      68.343129347065101
   291   1   2.4      2.7337251738826032      21.869801391060822      68.343129347065101
   292   1   2.4      2.7337251738826032      24.603526564943433      65.609404173182497
   293   1   2.4                       0      21.869801391060822      71.076854520947705
   294   1   2.4 -1.4997388508859272e-16      24.603526564943433      73.810579694830295
   295   1   2.4      2.7337251738826032      21.869801391060822      73.810579694830295
   296   1   2.4      2.7337251738826032      24.603526564943433      71.076854520947705
   297   1   2.4                       0      21.869801391060822      76.544304868712899
   298   1   2.4 -1.4997388508859272e-16      24.603526564943433      79.278030042595503
   299   1   2.4      2.7337251738826032      21.869801391060822      79.278030042595503
   300   1   2.4      2.7337251738826032      24.603526564943433      76.544304868712899
   301   1   2.4                       0      27.337251738826037                       0
   302   1   2.4 -1.4997388508859272e-16      30.070976912708641      2.7337251738826041
   303   1   2.4      2.7337251738826032      27.337251738826037      2.7337251738826041
   304   1   2.4      2.7337251738826032      30.070976912708641  2.9995703239834954e-16
   305   1   2.4                       0      27.337251738826037      5.4674503477652081
   306   1   2.4 -1.4997388508859272e-16      30.070976912708641      8.2011755216478122
   307   1   2.4      2.7337251738826032      27.337251738826037      8.2011755216478122
   308   1   2.4      2.7337251738826032      30.070976912708641      5.4674503477652081
   309   1   2.4                       0      27.337251738826037      10.934900695530416
   310   1   2.4 -1.4997388508859272e-16      30.070976912708641       13.66862586941302
   311   1   2.4      2.7337251738826032      27.337251738826037       13.66862586941302
   312   1   2.4      2.7337251738826032      30.070976912708641      10.934900695530416
   313   1   2.4                       0      27.337251738826037      16.402351043295624
   314   1   2.4 -1.4997388508859272e-16      30.070976912708641      19.136076217178225
   315   1   2.4      2.7337251738826032      27.337251738826037      19.136076217178225
   316   1   2.4      2.7337251738826032      30.070976912708641      16.402351043295624
   317   1   2.4                       0      27.337251738826037      21.869801391060832
   318   1   2.4 -1.4997388508859272e-16      30.070976912708641      24.603526564943436
   319   1   2.4      2.7337251738826032      27.337251738826037      24.603526564943436
   320   1   2.4      2.7337251738826032      30.070976912708641      21.869801391060832
   321   1   2.4                       0      27.337251738826037      27.337251738826041
   322   1   2.4 -1.4997388508859272e-16      30.070976912708641      30.070976912708637
   323   1   2.4      2.7337251738826032      27.337251738826037      30.070976912708637
   324   1   2.4      2.7337251738826032      30.070976912708641      27.337251738826041
   325   1   2.4                       0      27.337251738826037      32.804702086591249
   326   1   2.4 -1.4997388508859272e-16      30.070976912708641      35.538427260473853
   327   1   2.4      2.7337251738826032      27.337251738826037      35.538427260473853
   328   1   2.4      2.7337251738826032      30.070976912708641      32.804702086591249
   329   1   2.4                       0      27.337251738826037       38.27215243435645
   330   1   2.4 -1.4997388508859272e-16      30.070976912708641      41.005877608239047
   331   1   2.4      2.7337251738826032      27.337251738826037      41.005877608239047
   332   1   2.4      2.7337251738826032      30.070976912708641       38.27215243435645
   333   1   2.4                       0      27.337251738826037      43.739602782121665
   334   1   2.4 -1.4997388508859272e-16      30.070976912708641      46.473327956004269
   335   1   2.4      2.7337251738826032      27.337251738826037      46.473327956004269